# vtk DataFile Version 2.0
E:/Desktop/EVAC2023/output/1.vtk
ASCII 
DATASET STRUCTURED_GRID
DIMENSIONS 100 100 1
POINTS 10000 float
0 0 1
0 1 7
0 2 4
0 3 0
0 4 9
0 5 4
0 6 8
0 7 8
0 8 2
0 9 4
0 10 5
0 11 5
0 12 1
0 13 7
0 14 1
0 15 1
0 16 5
0 17 2
0 18 7
0 19 6
0 20 1
0 21 4
0 22 2
0 23 3
0 24 2
0 25 2
0 26 1
0 27 6
0 28 8
0 29 5
0 30 7
0 31 6
0 32 1
0 33 8
0 34 9
0 35 2
0 36 7
0 37 9
0 38 5
0 39 4
0 40 3
0 41 1
0 42 2
0 43 3
0 44 3
0 45 4
0 46 1
0 47 1
0 48 3
0 49 8
0 50 7
0 51 4
0 52 2
0 53 7
0 54 7
0 55 9
0 56 3
0 57 1
0 58 9
0 59 8
0 60 6
0 61 5
0 62 0
0 63 2
0 64 8
0 65 6
0 66 0
0 67 2
0 68 4
0 69 8
0 70 6
0 71 5
0 72 0
0 73 9
0 74 0
0 75 0
0 76 6
0 77 1
0 78 3
0 79 8
0 80 9
0 81 3
0 82 4
0 83 4
0 84 6
0 85 0
0 86 6
0 87 6
0 88 1
0 89 8
0 90 4
0 91 9
0 92 6
0 93 3
0 94 7
0 95 8
0 96 8
0 97 2
0 98 9
0 99 1
1 0 3
1 1 5
1 2 9
1 3 8
1 4 4
1 5 0
1 6 7
1 7 6
1 8 3
1 9 6
1 10 1
1 11 5
1 12 4
1 13 2
1 14 0
1 15 9
1 16 7
1 17 3
1 18 7
1 19 2
1 20 6
1 21 0
1 22 1
1 23 6
1 24 5
1 25 7
1 26 5
1 27 4
1 28 1
1 29 2
1 30 0
1 31 0
1 32 1
1 33 4
1 34 6
1 35 0
1 36 7
1 37 1
1 38 7
1 39 7
1 40 7
1 41 7
1 42 3
1 43 3
1 44 5
1 45 9
1 46 9
1 47 8
1 48 1
1 49 8
1 50 2
1 51 6
1 52 6
1 53 0
1 54 3
1 55 8
1 56 0
1 57 1
1 58 2
1 59 5
1 60 0
1 61 9
1 62 4
1 63 7
1 64 8
1 65 3
1 66 5
1 67 1
1 68 2
1 69 0
1 70 1
1 71 6
1 72 4
1 73 0
1 74 6
1 75 1
1 76 8
1 77 9
1 78 8
1 79 4
1 80 1
1 81 4
1 82 3
1 83 9
1 84 8
1 85 8
1 86 0
1 87 8
1 88 7
1 89 7
1 90 8
1 91 3
1 92 8
1 93 3
1 94 7
1 95 1
1 96 0
1 97 7
1 98 3
1 99 4
2 0 9
2 1 6
2 2 5
2 3 1
2 4 0
2 5 9
2 6 9
2 7 6
2 8 8
2 9 3
2 10 4
2 11 8
2 12 4
2 13 9
2 14 9
2 15 2
2 16 5
2 17 5
2 18 3
2 19 3
2 20 3
2 21 7
2 22 4
2 23 3
2 24 8
2 25 0
2 26 8
2 27 8
2 28 0
2 29 6
2 30 8
2 31 1
2 32 9
2 33 8
2 34 9
2 35 7
2 36 2
2 37 2
2 38 8
2 39 2
2 40 8
2 41 9
2 42 0
2 43 7
2 44 8
2 45 1
2 46 5
2 47 8
2 48 6
2 49 1
2 50 2
2 51 4
2 52 2
2 53 5
2 54 8
2 55 6
2 56 2
2 57 6
2 58 5
2 59 3
2 60 9
2 61 2
2 62 4
2 63 6
2 64 1
2 65 8
2 66 2
2 67 1
2 68 1
2 69 9
2 70 7
2 71 6
2 72 2
2 73 9
2 74 5
2 75 2
2 76 0
2 77 0
2 78 3
2 79 9
2 80 1
2 81 8
2 82 1
2 83 9
2 84 5
2 85 3
2 86 2
2 87 5
2 88 2
2 89 5
2 90 8
2 91 6
2 92 7
2 93 7
2 94 2
2 95 2
2 96 9
2 97 4
2 98 1
2 99 9
3 0 6
3 1 9
3 2 8
3 3 2
3 4 5
3 5 5
3 6 4
3 7 9
3 8 1
3 9 2
3 10 5
3 11 0
3 12 8
3 13 3
3 14 9
3 15 3
3 16 9
3 17 6
3 18 7
3 19 9
3 20 9
3 21 7
3 22 6
3 23 9
3 24 3
3 25 5
3 26 7
3 27 6
3 28 6
3 29 5
3 30 8
3 31 2
3 32 5
3 33 4
3 34 4
3 35 1
3 36 6
3 37 1
3 38 6
3 39 3
3 40 3
3 41 5
3 42 5
3 43 3
3 44 2
3 45 8
3 46 2
3 47 5
3 48 3
3 49 6
3 50 1
3 51 8
3 52 6
3 53 2
3 54 1
3 55 4
3 56 6
3 57 2
3 58 9
3 59 1
3 60 5
3 61 0
3 62 3
3 63 6
3 64 4
3 65 9
3 66 2
3 67 9
3 68 3
3 69 4
3 70 4
3 71 0
3 72 5
3 73 9
3 74 6
3 75 3
3 76 4
3 77 2
3 78 8
3 79 8
3 80 7
3 81 5
3 82 8
3 83 1
3 84 2
3 85 5
3 86 7
3 87 4
3 88 4
3 89 4
3 90 4
3 91 4
3 92 2
3 93 9
3 94 3
3 95 0
3 96 7
3 97 7
3 98 8
3 99 7
4 0 3
4 1 0
4 2 3
4 3 8
4 4 2
4 5 5
4 6 2
4 7 0
4 8 3
4 9 7
4 10 2
4 11 9
4 12 7
4 13 5
4 14 3
4 15 4
4 16 3
4 17 2
4 18 1
4 19 1
4 20 3
4 21 2
4 22 5
4 23 3
4 24 5
4 25 1
4 26 2
4 27 2
4 28 2
4 29 6
4 30 4
4 31 0
4 32 7
4 33 0
4 34 3
4 35 4
4 36 0
4 37 0
4 38 5
4 39 3
4 40 1
4 41 0
4 42 6
4 43 7
4 44 5
4 45 0
4 46 0
4 47 4
4 48 5
4 49 4
4 50 9
4 51 5
4 52 6
4 53 4
4 54 8
4 55 2
4 56 1
4 57 6
4 58 8
4 59 3
4 60 1
4 61 4
4 62 8
4 63 4
4 64 9
4 65 2
4 66 0
4 67 7
4 68 0
4 69 6
4 70 0
4 71 7
4 72 0
4 73 5
4 74 6
4 75 7
4 76 3
4 77 8
4 78 4
4 79 9
4 80 2
4 81 6
4 82 5
4 83 7
4 84 7
4 85 4
4 86 5
4 87 7
4 88 9
4 89 8
4 90 3
4 91 0
4 92 2
4 93 2
4 94 3
4 95 6
4 96 7
4 97 1
4 98 5
4 99 5
5 0 4
5 1 0
5 2 2
5 3 6
5 4 0
5 5 6
5 6 1
5 7 1
5 8 1
5 9 7
5 10 3
5 11 0
5 12 0
5 13 4
5 14 8
5 15 3
5 16 0
5 17 1
5 18 2
5 19 9
5 20 0
5 21 3
5 22 8
5 23 8
5 24 5
5 25 7
5 26 7
5 27 0
5 28 8
5 29 9
5 30 3
5 31 0
5 32 7
5 33 4
5 34 7
5 35 8
5 36 3
5 37 7
5 38 1
5 39 0
5 40 0
5 41 8
5 42 3
5 43 4
5 44 5
5 45 0
5 46 1
5 47 4
5 48 5
5 49 6
5 50 2
5 51 0
5 52 3
5 53 5
5 54 6
5 55 6
5 56 6
5 57 7
5 58 6
5 59 7
5 60 7
5 61 1
5 62 9
5 63 1
5 64 6
5 65 2
5 66 7
5 67 2
5 68 7
5 69 6
5 70 5
5 71 1
5 72 3
5 73 9
5 74 9
5 75 5
5 76 9
5 77 2
5 78 6
5 79 5
5 80 3
5 81 2
5 82 4
5 83 4
5 84 4
5 85 2
5 86 7
5 87 9
5 88 2
5 89 3
5 90 7
5 91 3
5 92 1
5 93 5
5 94 7
5 95 8
5 96 5
5 97 8
5 98 3
5 99 2
6 0 4
6 1 1
6 2 1
6 3 5
6 4 9
6 5 5
6 6 1
6 7 0
6 8 6
6 9 4
6 10 5
6 11 3
6 12 0
6 13 8
6 14 9
6 15 1
6 16 3
6 17 4
6 18 7
6 19 4
6 20 6
6 21 3
6 22 6
6 23 5
6 24 2
6 25 8
6 26 1
6 27 0
6 28 3
6 29 1
6 30 5
6 31 5
6 32 2
6 33 2
6 34 1
6 35 7
6 36 4
6 37 8
6 38 2
6 39 3
6 40 6
6 41 3
6 42 0
6 43 3
6 44 5
6 45 2
6 46 8
6 47 0
6 48 7
6 49 2
6 50 2
6 51 5
6 52 9
6 53 1
6 54 0
6 55 8
6 56 5
6 57 0
6 58 7
6 59 9
6 60 0
6 61 5
6 62 3
6 63 4
6 64 1
6 65 0
6 66 4
6 67 8
6 68 5
6 69 9
6 70 2
6 71 5
6 72 4
6 73 1
6 74 3
6 75 9
6 76 5
6 77 8
6 78 2
6 79 7
6 80 9
6 81 6
6 82 1
6 83 7
6 84 7
6 85 1
6 86 9
6 87 0
6 88 3
6 89 4
6 90 1
6 91 7
6 92 5
6 93 3
6 94 3
6 95 2
6 96 4
6 97 1
6 98 2
6 99 9
7 0 0
7 1 8
7 2 7
7 3 4
7 4 5
7 5 6
7 6 8
7 7 0
7 8 7
7 9 7
7 10 4
7 11 3
7 12 1
7 13 3
7 14 6
7 15 3
7 16 0
7 17 1
7 18 9
7 19 0
7 20 4
7 21 2
7 22 9
7 23 3
7 24 1
7 25 4
7 26 8
7 27 2
7 28 0
7 29 5
7 30 5
7 31 9
7 32 3
7 33 2
7 34 8
7 35 7
7 36 4
7 37 8
7 38 1
7 39 4
7 40 3
7 41 5
7 42 5
7 43 2
7 44 6
7 45 8
7 46 9
7 47 2
7 48 9
7 49 5
7 50 9
7 51 4
7 52 5
7 53 0
7 54 5
7 55 8
7 56 8
7 57 0
7 58 1
7 59 3
7 60 2
7 61 2
7 62 2
7 63 7
7 64 0
7 65 3
7 66 1
7 67 3
7 68 3
7 69 7
7 70 0
7 71 9
7 72 5
7 73 5
7 74 8
7 75 3
7 76 7
7 77 8
7 78 3
7 79 7
7 80 9
7 81 3
7 82 9
7 83 1
7 84 8
7 85 2
7 86 8
7 87 0
7 88 1
7 89 8
7 90 4
7 91 8
7 92 6
7 93 0
7 94 9
7 95 3
7 96 0
7 97 0
7 98 8
7 99 7
8 0 6
8 1 3
8 2 5
8 3 6
8 4 5
8 5 8
8 6 3
8 7 9
8 8 4
8 9 8
8 10 3
8 11 9
8 12 7
8 13 6
8 14 4
8 15 5
8 16 8
8 17 6
8 18 1
8 19 5
8 20 5
8 21 1
8 22 9
8 23 6
8 24 4
8 25 5
8 26 4
8 27 2
8 28 5
8 29 3
8 30 2
8 31 6
8 32 8
8 33 2
8 34 6
8 35 6
8 36 3
8 37 9
8 38 4
8 39 5
8 40 6
8 41 2
8 42 5
8 43 3
8 44 5
8 45 6
8 46 6
8 47 1
8 48 4
8 49 4
8 50 6
8 51 2
8 52 6
8 53 8
8 54 2
8 55 5
8 56 5
8 57 1
8 58 0
8 59 1
8 60 5
8 61 1
8 62 7
8 63 6
8 64 0
8 65 0
8 66 2
8 67 4
8 68 3
8 69 3
8 70 6
8 71 2
8 72 8
8 73 2
8 74 3
8 75 4
8 76 3
8 77 4
8 78 3
8 79 6
8 80 8
8 81 4
8 82 7
8 83 3
8 84 9
8 85 8
8 86 0
8 87 0
8 88 8
8 89 8
8 90 0
8 91 5
8 92 1
8 93 4
8 94 3
8 95 6
8 96 3
8 97 9
8 98 2
8 99 1
9 0 9
9 1 8
9 2 2
9 3 3
9 4 4
9 5 0
9 6 2
9 7 3
9 8 1
9 9 9
9 10 8
9 11 9
9 12 8
9 13 9
9 14 1
9 15 3
9 16 5
9 17 1
9 18 4
9 19 2
9 20 5
9 21 3
9 22 8
9 23 9
9 24 2
9 25 8
9 26 7
9 27 0
9 28 1
9 29 4
9 30 8
9 31 1
9 32 9
9 33 3
9 34 5
9 35 9
9 36 7
9 37 9
9 38 8
9 39 0
9 40 1
9 41 4
9 42 7
9 43 5
9 44 5
9 45 5
9 46 0
9 47 9
9 48 2
9 49 8
9 50 2
9 51 4
9 52 5
9 53 0
9 54 4
9 55 4
9 56 0
9 57 5
9 58 1
9 59 1
9 60 5
9 61 9
9 62 0
9 63 8
9 64 3
9 65 8
9 66 7
9 67 2
9 68 6
9 69 9
9 70 3
9 71 8
9 72 1
9 73 0
9 74 3
9 75 3
9 76 8
9 77 4
9 78 8
9 79 0
9 80 1
9 81 5
9 82 4
9 83 1
9 84 3
9 85 7
9 86 3
9 87 5
9 88 8
9 89 5
9 90 6
9 91 9
9 92 0
9 93 8
9 94 9
9 95 3
9 96 6
9 97 0
9 98 6
9 99 9
10 0 7
10 1 8
10 2 9
10 3 4
10 4 1
10 5 5
10 6 6
10 7 6
10 8 6
10 9 6
10 10 6
10 11 7
10 12 1
10 13 4
10 14 0
10 15 6
10 16 1
10 17 2
10 18 1
10 19 4
10 20 9
10 21 5
10 22 2
10 23 3
10 24 4
10 25 1
10 26 5
10 27 2
10 28 3
10 29 1
10 30 6
10 31 8
10 32 8
10 33 2
10 34 7
10 35 7
10 36 1
10 37 2
10 38 6
10 39 0
10 40 4
10 41 9
10 42 4
10 43 6
10 44 0
10 45 3
10 46 6
10 47 2
10 48 4
10 49 5
10 50 8
10 51 8
10 52 1
10 53 2
10 54 1
10 55 4
10 56 9
10 57 8
10 58 2
10 59 4
10 60 5
10 61 2
10 62 9
10 63 9
10 64 8
10 65 3
10 66 8
10 67 6
10 68 9
10 69 8
10 70 6
10 71 6
10 72 2
10 73 3
10 74 8
10 75 2
10 76 6
10 77 2
10 78 7
10 79 5
10 80 7
10 81 8
10 82 2
10 83 7
10 84 8
10 85 0
10 86 2
10 87 0
10 88 8
10 89 9
10 90 2
10 91 8
10 92 2
10 93 0
10 94 5
10 95 5
10 96 2
10 97 7
10 98 6
10 99 7
11 0 8
11 1 7
11 2 8
11 3 1
11 4 6
11 5 0
11 6 9
11 7 5
11 8 8
11 9 9
11 10 0
11 11 0
11 12 0
11 13 7
11 14 2
11 15 5
11 16 5
11 17 2
11 18 1
11 19 4
11 20 8
11 21 6
11 22 4
11 23 6
11 24 8
11 25 9
11 26 8
11 27 3
11 28 5
11 29 5
11 30 1
11 31 5
11 32 5
11 33 8
11 34 4
11 35 0
11 36 5
11 37 4
11 38 7
11 39 2
11 40 1
11 41 4
11 42 9
11 43 9
11 44 0
11 45 3
11 46 0
11 47 3
11 48 5
11 49 0
11 50 7
11 51 6
11 52 7
11 53 8
11 54 3
11 55 6
11 56 4
11 57 4
11 58 1
11 59 9
11 60 5
11 61 5
11 62 7
11 63 4
11 64 7
11 65 3
11 66 4
11 67 0
11 68 8
11 69 8
11 70 1
11 71 5
11 72 2
11 73 3
11 74 2
11 75 4
11 76 6
11 77 6
11 78 6
11 79 2
11 80 9
11 81 0
11 82 4
11 83 9
11 84 3
11 85 1
11 86 1
11 87 9
11 88 9
11 89 5
11 90 5
11 91 5
11 92 6
11 93 0
11 94 5
11 95 9
11 96 4
11 97 6
11 98 3
11 99 4
12 0 9
12 1 0
12 2 5
12 3 3
12 4 9
12 5 1
12 6 2
12 7 8
12 8 8
12 9 1
12 10 8
12 11 6
12 12 0
12 13 2
12 14 4
12 15 9
12 16 0
12 17 2
12 18 2
12 19 1
12 20 5
[...]
POINT_DATA 10000
SCALARS CON float 1
LOOKUP_TABLE default
15	14	14	4	18	2	9	11	8	1	19	3	9	13	17	2	15	6	17	18	14	7	19	16	0	17	4	18	3	8	3	13	10	19	0	19	10	15	12	11	0	7	16	18	13	3	9	10	14	18	0	10	10	16	8	1	2	12	17	10	11	14	6	11	16	12	8	16	14	10	0	3	8	4	2	2	3	19	4	4	0	15	11	4	12	3	17	2	16	17	6	7	9	3	2	19	8	2	7	5	17	11	11	7	17	15	14	18	15	15	13	0	1	7	1	0	2	3	9	15	18	16	1	12	0	12	13	5	19	4	2	4	16	12	7	14	15	0	2	19	12	6	4	2	16	1	2	0	12	4	10	3	13	5	17	3	13	16	18	17	17	10	3	18	7	3	11	14	13	16	4	13	19	9	17	14	6	14	2	18	17	19	3	15	17	13	14	10	3	7	1	18	9	17	8	3	9	12	6	1	8	6	10	12	7	19	0	11	14	16	1	11	6	15	19	15	1	7	13	7	7	5	2	17	11	8	12	10	10	5	10	12	12	18	6	11	9	0	13	18	1	10	4	16	7	16	8	15	1	16	4	12	17	11	9	15	12	3	6	17	12	16	2	3	16	17	3	0	16	8	4	3	18	13	5	18	11	14	9	15	3	2	0	5	16	0	14	2	4	7	8	6	0	8	6	13	12	6	8	1	17	0	5	10	14	3	17	8	18	14	2	7	5	12	17	16	5	5	10	18	2	15	1	14	1	10	10	8	1	1	11	15	12	15	13	15	1	2	0	12	9	11	7	14	7	7	12	7	19	8	11	9	11	3	5	5	13	0	10	18	19	2	15	2	0	10	2	5	10	6	3	8	0	2	16	1	18	5	3	16	3	0	14	1	10	11	0	6	8	13	14	16	9	14	16	17	5	15	17	18	13	9	4	6	18	2	9	0	17	1	8	17	0	18	8	19	12	8	6	15	3	2	14	6	12	12	6	10	16	4	15	0	3	5	17	3	8	3	11	3	17	3	9	10	15	16	19	15	0	5	7	6	18	9	3	4	11	5	13	11	9	17	10	0	8	6	16	10	17	5	4	6	10	12	0	17	19	9	9	13	7	15	7	16	16	1	3	1	15	12	17	17	3	8	16	13	7	14	7	5	18	5	1	12	3	19	3	9	6	5	1	5	17	9	2	13	18	6	7	3	16	9	7	12	19	15	0	1	9	3	13	10	15	18	15	6	17	0	16	9	1	16	10	14	5	11	0	5	7	9	8	12	9	0	5	12	5	9	5	18	2	0	6	2	7	8	0	4	11	11	6	10	10	7	18	14	0	9	10	16	8	1	8	17	14	10	12	0	4	11	5	17	9	2	13	13	10	8	14	18	2	17	1	16	17	14	4	19	1	16	10	9	12	10	13	10	16	18	17	14	12	8	15	14	6	16	8	3	2	13	3	16	14	1	13	19	13	15	16	2	13	3	17	9	4	9	18	18	3	12	14	8	6	16	11	1	18	10	2	16	12	3	1	14	2	0	14	2	19	4	18	18	19	18	0	8	16	9	2	7	18	17	1	19	10	12	5	18	9	8	11	19	11	3	15	7	2	1	16	19	19	16	14	5	12	18	17	10	15	6	3	3	14	4	16	2	3	2	13	12	10	15	11	5	13	12	0	0	19	8	15	16	0	0	4	13	16	6	6	11	13	9	4	3	7	9	13	19	2	13	7	5	14	10	19	18	6	2	10	1	13	17	7	6	2	14	0	3	6	6	14	2	0	0	9	15	16	9	2	0	2	14	3	7	0	2	5	18	7	1	0	10	15	17	4	4	2	17	10	7	19	7	9	12	9	14	18	2	13	3	9	19	8	7	13	10	17	18	18	9	8	6	10	18	6	15	3	16	8	10	18	1	18	8	14	13	3	16	11	14	19	11	9	10	8	11	14	16	17	2	2	14	16	8	16	19	17	7	14	8	15	15	0	5	16	1	15	13	4	0	12	1	2	10	18	13	9	18	4	16	3	14	2	15	11	12	2	7	5	2	14	14	0	3	1	2	16	6	3	8	16	13	13	16	1	6	8	14	15	17	0	9	3	19	0	6	7	13	9	11	10	15	16	12	7	10	7	1	19	8	6	1	4	7	2	3	13	14	7	16	19	3	19	12	7	8	6	0	13	11	7	11	7	11	14	15	15	5	0	18	16	18	12	2	4	15	3	6	13	3	7	2	13	12	15	5	4	13	18	4	12	10	9	2	13	12	18	2	12	15	18	13	16	5	9	5	3	4	9	8	6	11	12	9	0	5	10	0	1	11	14	8	10	15	3	10	19	8	19	11	15	16	7	2	15	11	10	11	17	3	6	15	11	17	18	9	5	1	15	12	0	8	1	2	7	1	6	17	5	10	12	0	0	13	18	4	4	11	5	11	12	10	8	9	18	13	2	17	0	8	9	3	5	11	7	7	0	12	12	8	9	11	7	2	10	17	6	8	8	2	19	11	10	15	17	19	8	4	18	11	16	3	10	19	5	5	7	19	5	1	7	11	17	14	3	1	6	8	9	2	14	14	8	13	7	14	19	5	7	9	11	5	5	17	9	13	19	8	3	6	17	3	1	18	17	3	16	1	7	10	18	18	3	14	1	6	4	5	8	18	3	16	10	4	16	14	6	17	1	11	6	4	1	18	0	16	2	6	6	1	10	12	9	12	2	14	4	10	4	14	18	8	15	18	17	16	9	18	5	10	4	11	0	4	0	19	11	10	0	8	17	3	6	5	6	16	4	7	19	17	5	16	12	9	4	14	18	9	7	10	2	14	18	3	5	19	7	9	10	0	18	8	13	13	16	10	13	9	9	0	9	11	8	0	6	10	6	8	0	15	3	13	5	15	19	15	6	13	13	8	16	10	16	7	6	0	0	14	2	12	0	1	13	3	11	9	19	3	19	17	18	5	8	0	18	10	3	15	1	14	11	4	3	8	0	16	17	8	13	5	1	5	5	6	9	15	14	3	17	19	10	12	2	4	11	2	5	3	13	4	11	10	17	2	2	18	3	11	12	4	16	15	11	12	13	0	4	5	1	3	15	4	13	1	15	12	12	3	14	1	13	1	12	8	2	9	17	3	12	12	8	10	0	9	6	12	4	19	6	13	18	7	13	0	1	5	5	17	18	11	10	2	8	10	13	5	3	2	5	4	9	8	2	4	14	14	19	7	6	5	3	5	0	1	8	8	9	6	0	7	17	11	15	0	18	12	4	14	7	4	0	17	10	6	16	11	9	6	15	19	9	12	19	16	13	17	10	12	18	19	4	9	7	2	19	16	14	14	19	8	11	19	3	6	12	2	8	19	2	6	16	1	16	15	14	1	17	6	12	16	11	5	1	4	9	4	4	6	5	0	8	10	10	3	6	3	11	17	12	11	13	1	8	5	9	15	4	9	10	16	6	3	5	2	15	13	10	6	4	6	10	7	9	19	17	9	18	11	14	10	2	1	5	15	9	6	8	2	5	16	13	15	1	11	3	17	2	13	3	11	5	15	6	2	9	14	16	8	13	15	10	1	17	19	6	17	17	6	11	14	13	2	17	8	19	2	14	14	14	3	11	19	13	15	4	5	16	4	18	16	8	3	6	6	8	6	18	2	3	7	3	19	1	10	3	6	2	9	2	6	8	18	16	14	19	0	17	13	5	13	15	14	8	19	3	6	1	10	6	14	19	14	11	3	3	14	14	9	8	12	6	4	14	13	14	5	3	11	1	0	6	9	8	9	12	15	13	17	3	11	13	17	8	3	12	5	8	16	16	6	11	2	11	12	10	13	2	16	5	8	19	1	14	4	17	9	7	11	3	5	6	12	9	0	16	18	5	18	17	9	5	0	10	17	12	3	6	18	4	1	9	10	15	13	9	17	17	19	19	10	9	8	14	19	6	3	18	2	16	11	5	1	6	7	12	15	14	12	8	0	19	10	11	7	3	6	15	13	9	10	19	1	0	9	3	6	5	16	6	1	13	17	7	11	7	7	3	9	16	15	18	18	12	6	7	9	12	3	1	0	9	14	19	8	4	4	10	6	2	17	17	13	13	12	17	17	15	1	2	19	15	1	2	10	2	5	5	9	5	0	5	6	4	7	7	11	16	10	1	15	8	17	1	19	12	10	10	13	11	13	5	8	19	17	19	2	2	0	13	15	0	10	16	19	14	6	11	13	13	10	9	8	7	12	15	11	1	13	17	16	10	1	16	18	19	15	9	3	8	18	15	11	13	8	10	14	8	6	11	16	10	17	14	11	9	11	19	0	5	4	16	18	17	15	15	15	4	12	8	1	19	16	4	16	17	15	0	12	14	16	3	6	8	5	9	6	3	1	14	16	15	12	18	19	0	14	18	8	13	15	12	3	11	4	2	3	4	1	8	9	19	6	15	12	15	4	8	6	0	10	2	5	4	0	11	10	10	10	9	13	11	4	5	19	14	0	7	5	13	4	16	17	0	15	7	2	6	10	9	11	18	19	17	4	12	4	3	12	19	8	5	10	5	11	19	19	17	4	5	3	9	12	10	12	0	4	7	3	17	13	19	12	13	19	17	13	6	4	10	9	12	11	8	10	12	17	14	0	3	2	14	12	3	3	0	6	4	19	0	9	6	3	17	15	2	14	8	15	6	13	9	1	9	0	3	19	15	17	18	2	5	12	8	15	8	11	9	18	16	19	16	14	2	11	5	6	1	9	8	16	1	18	6	4	9	13	15	19	19	15	7	9	6	2	17	11	19	15	1	17	19	12	13	11	12	10	2	2	5	3	7	18	7	0	10	6	5	12	6	19	16	4	10	16	0	18	16	9	17	4	8	3	10	15	5	12	18	15	16	15	7	16	0	2	7	17	14	2	1	9	14	19	5	15	17	17	19	10	17	13	10	17	17	12	4	3	2	13	8	6	11	9	18	17	7	8	18	7	16	5	8	6	2	10	11	5	17	2	4	5	12	15	17	2	18	7	17	4	2	17	15	16	15	16	11	1	16	16	4	2	6	11	6	5	9	14	1	8	15	12	7	16	13	19	7	3	18	6	11	3	11	13	19	15	4	11	18	8	11	13	15	4	10	12	0	5	13	1	16	10	14	6	7	14	8	12	19	5	2	15	0	2	16	18	15	18	2	7	18	18	4	12	18	3	6	12	18	11	9	12	11	10	1	2	1	19	1	19	18	7	0	11	4	0	5	17	3	6	17	12	7	4	11	14	19	15	12	6	15	18	17	11	15	1	14	18	17	7	0	16	19	10	5	14	16	18	2	5	9	1	5	6	6	1	16	9	11	14	18	19	4	6	1	18	4	6	0	8	13	19	5	19	7	9	5	16	12	18	15	17	6	2	10	8	15	10	11	5	1	6	7	7	16	7	9	16	1	1	2	2	12	18	8	4	5	16	17	0	3	7	4	0	5	1	1	0	1	5	1	8	18	18	19	14	4	18	17	18	3	19	2	16	0	4	14	18	19	15	19	3	17	2	1	11	4	19	12	12	9	4	0	8	9	3	2	8	16	14	13	8	1	11	15	4	6	10	1	7	6	7	12	13	12	9	14	2	15	11	5	17	6	7	9	6	3	4	8	12	11	0	9	18	0	13	13	8	13	7	10	17	8	7	9	6	1	19	19	5	15	13	10	3	9	8	13	6	11	5	9	16	9	3	5	12	7	13	16	2	9	11	18	9	17	3	13	18	3	1	13	8	12	14	1	6	10	9	19	12	18	6	13	6	3	15	10	6	7	4	1	12	8	15	4	18	0	8	7	0	8	13	2	2	5	9	1	13	8	14	2	12	12	12	12	15	13	12	2	19	15	9	18	11	4	18	7	14	6	0	1	10	12	2	3	0	15	2	17	1	16	17	0	5	0	6	14	7	2	7	15	12	4	5	8	14	5	16	1	15	3	2	2	2	4	8	9	3	17	2	7	10	13	0	8	1	15	16	0	5	7	3	11	17	18	10	7	7	8	10	17	10	14	19	2	1	0	8	18	8	12	19	18	4	8	2	13	6	0	15	0	10	8	12	4	10	16	10	8	8	0	15	3	7	15	5	16	3	7	5	16	18	3	0	2	15	16	8	13	13	12	2	16	7	19	19	12	14	3	9	17	18	15	19	14	6	11	11	14	3	6	7	6	4	7	18	11	19	6	9	11	5	2	5	10	10	11	11	13	19	2	13	4	17	6	6	0	7	18	2	7	19	12	10	7	13	0	15	9	7	13	1	3	0	15	5	0	11	6	0	6	19	10	8	15	9	15	17	0	9	3	1	4	17	18	15	13	2	1	14	8	16	2	8	9	12	11	13	12	4	1	10	11	11	18	2	4	6	6	3	19	6	3	8	7	14	7	6	15	7	15	8	0	18	17	7	17	18	5	1	4	7	7	18	3	11	7	5	2	7	19	9	3	4	13	11	1	6	16	17	5	16	13	15	1	9	1	17	0	2	9	10	7	14	9	11	16	19	1	7	4	17	13	2	13	15	6	7	14	12	9	14	7	16	16	17	0	5	15	19	0	0	13	19	1	7	18	6	5	18	7	19	16	0	8	14	1	13	10	11	11	10	9	12	9	5	3	18	19	1	2	15	10	8	14	12	9	15	15	2	6	17	6	6	13	4	13	17	8	17	12	3	2	18	1	12	3	9	3	4	3	2	11	15	10	5	7	2	9	13	19	3	12	8	17	15	7	9	12	8	0	10	8	16	4	13	16	12	13	17	4	13	13	16	9	11	5	16	14	19	4	15	19	13	9	15	13	18	6	14	4	2	2	13	8	5	6	7	15	2	11	1	1	1	0	15	9	10	5	1	3	18	14	11	15	1	2	10	5	19	14	16	14	7	15	2	1	6	15	8	17	14	14	4	2	18	7	3	14	11	8	4	7	8	16	6	2	2	3	9	18	3	3	7	17	12	2	5	14	12	10	3	3	3	4	0	13	6	16	19	14	13	13	17	10	11	4	8	17	12	1	3	3	1	10	15	14	8	18	9	0	6	5	14	1	9	6	7	15	13	6	17	10	5	15	3	3	14	7	13	15	16	6	1	5	2	9	0	8	3	13	16	10	16	3	11	6	8	17	14	3	13	12	19	0	1	16	7	11	9	1	0	9	1	4	3	0	12	9	13	12	2	2	0	6	7	8	15	14	9	7	1	7	0	16	18	8	13	11	14	1	5	11	15	6	7	17	1	15	1	11	16	18	7	8	14	8	5	15	6	14	3	2	0	19	17	5	9	13	3	0	13	6	17	15	0	3	3	3	14	3	17	5	15	9	1	13	14	5	13	14	11	18	14	17	2	12	5	15	14	0	9	11	7	9	9	3	0	8	16	1	12	3	2	5	7	1	1	0	3	17	0	16	0	9	2	15	4	2	15	14	7	9	2	16	3	15	14	1	7	4	14	18	9	16	14	13	0	0	5	1	19	7	4	10	7	4	12	18	3	0	19	6	1	19	15	19	12	15	19	7	16	8	6	0	14	5	13	19	17	19	8	8	16	16	0	18	9	7	12	1	8	10	13	7	4	10	14	16	3	11	4	19	13	3	3	14	19	3	17	9	0	9	11	6	7	8	4	5	14	5	12	0	10	2	14	6	8	7	17	19	0	0	10	15	12	10	9	8	8	2	4	1	3	12	4	13	12	5	5	7	17	14	6	3	12	17	5	5	9	2	8	0	11	4	12	10	18	4	4	6	12	17	9	6	15	12	5	2	14	6	6	13	0	7	1	6	17	6	6	9	2	6	6	8	19	11	2	4	19	2	5	16	4	5	13	8	4	14	2	17	3	17	8	17	9	16	14	5	10	7	18	11	4	8	15	5	6	16	16	5	15	7	15	6	8	17	19	19	9	10	5	3	13	15	1	16	13	12	7	8	11	16	4	5	19	0	19	0	14	8	11	5	17	16	3	0	16	14	11	7	8	19	8	2	13	19	3	7	0	0	14	12	4	14	4	17	7	5	15	10	4	11	2	16	11	9	3	7	12	11	9	4	3	2	19	4	11	17	2	17	2	16	15	7	5	1	7	17	0	7	14	9	0	8	2	14	3	9	18	9	12	5	6	14	7	18	4	7	11	3	16	9	2	2	9	6	5	8	4	19	9	7	0	19	5	15	18	3	10	9	13	15	7	19	13	13	16	8	1	13	16	19	11	1	18	13	8	6	1	4	3	10	0	13	10	3	13	14	6	11	19	16	6	2	14	18	19	6	18	7	2	5	12	5	14	0	4	19	8	5	18	4	1	18	11	8	11	12	6	14	6	11	0	11	4	4	9	2	2	3	12	0	13	3	17	18	10	6	5	5	18	5	9	1	9	2	7	9	7	12	9	17	7	17	19	13	19	15	4	14	16	1	7	19	16	6	12	10	18	3	16	18	9	12	1	6	19	0	11	3	18	14	6	15	4	7	13	19	7	14	6	15	17	5	12	11	18	8	17	8	14	18	3	19	17	16	1	16	3	7	9	7	17	14	1	4	13	11	6	5	9	16	13	16	11	5	9	4	0	0	19	4	14	14	16	15	6	8	12	7	6	15	11	8	3	8	1	3	11	7	10	6	5	3	19	14	0	19	14	12	5	10	0	12	3	0	17	7	1	3	3	10	11	1	14	19	17	4	8	8	1	9	1	18	17	6	9	16	0	18	17	12	13	2	10	1	8	17	4	6	18	3	10	18	7	11	2	16	6	14	0	16	7	7	2	3	11	17	15	11	13	13	4	19	8	17	10	14	2	5	6	5	19	15	17	2	8	2	19	18	10	14	2	11	10	12	10	14	18	8	9	7	13	2	12	11	11	9	0	9	15	0	10	12	6	15	15	15	17	6	1	2	17	5	10	8	16	4	10	14	3	11	10	3	19	8	9	8	1	15	12	2	10	11	2	14	6	15	2	12	15	12	11	15	16	5	11	12	0	6	15	5	5	6	7	8	0	19	15	7	18	15	17	6	0	8	4	11	7	3	4	18	0	6	18	2	10	3	11	10	7	4	4	11	16	17	16	13	19	3	14	8	3	14	8	5	11	17	1	1	2	4	10	5	3	2	19	6	3	4	8	7	7	5	0	17	4	12	9	3	0	12	1	14	3	18	18	6	18	4	13	17	6	0	8	12	4	14	7	8	12	10	19	3	11	5	2	19	18	15	2	13	15	6	10	10	18	5	16	10	17	11	8	18	4	16	5	15	0	12	1	8	0	3	0	5	4	13	15	4	17	19	15	12	1	1	11	3	13	13	17	16	0	4	9	14	18	8	15	12	5	2	16	9	7	1	2	5	12	3	11	9	13	18	15	3	17	1	5	14	19	4	16	13	12	17	1	9	11	9	4	0	14	10	11	15	2	10	3	8	5	4	10	17	19	10	15	7	4	10	3	18	0	17	4	16	9	13	1	8	8	5	13	18	16	7	3	16	16	17	9	2	19	0	15	13	10	13	3	12	8	1	3	4	5	19	6	14	17	8	11	11	18	18	2	3	1	13	12	9	13	6	9	2	5	0	12	12	2	9	19	5	8	12	19	16	5	4	14	19	2	18	7	17	2	2	3	2	16	8	2	13	5	9	7	13	3	10	19	15	16	16	14	7	1	13	16	9	0	11	16	18	7	19	19	7	16	3	11	13	14	8	16	6	17	1	19	18	5	8	17	6	15	8	2	1	13	6	2	16	2	4	4	12	9	11	17	8	6	4	3	12	6	1	19	0	0	0	4	10	4	12	2	0	15	0	9	12	6	9	5	0	16	7	13	16	19	18	15	17	10	17	0	13	4	7	16	12	7	6	3	1	19	0	5	1	13	8	0	11	15	16	16	14	17	0	0	7	1	8	3	5	15	17	11	17	16	18	9	6	13	13	9	2	6	19	16	7	16	11	7	3	17	5	9	17	6	7	1	0	11	1	13	1	2	10	19	7	7	18	14	5	6	18	0	14	1	8	5	3	12	7	10	4	18	15	18	10	6	1	0	12	18	17	11	17	2	3	7	4	0	12	17	17	18	1	16	16	9	13	1	0	1	7	12	1	14	6	12	12	1	8	13	2	13	9	16	0	3	16	6	15	3	6	12	12	14	18	3	13	5	1	4	12	4	3	6	7	7	2	7	12	19	17	19	7	0	11	3	7	13	10	1	2	13	9	17	11	13	14	19	16	14	12	17	11	4	12	16	13	19	6	15	6	5	9	4	19	16	5	5	9	17	15	4	9	9	10	6	9	11	7	10	18	19	18	10	6	14	4	6	16	5	12	19	1	6	2	14	5	4	5	6	7	6	16	19	17	19	7	7	0	5	7	2	18	12	11	17	17	4	0	8	3	14	0	16	2	6	10	18	18	16	13	9	0	9	9	2	18	4	10	14	4	6	4	3	17	17	7	3	19	4	8	6	15	8	16	18	12	18	15	3	5	5	3	4	9	4	11	12	11	7	6	18	18	14	0	15	11	7	10	8	16	2	9	15	3	1	9	1	16	9	7	19	15	2	5	17	2	17	8	6	5	12	6	2	6	14	10	0	11	13	9	0	18	0	1	0	16	9	15	1	5	3	9	12	4	19	14	9	14	12	5	13	7	0	4	19	11	5	17	12	18	16	10	15	15	12	14	5	2	3	15	9	4	17	12	4	18	9	2	4	1	7	19	10	18	10	11	1	2	15	3	17	15	2	18	0	11	18	14	6	4	15	11	15	9	9	14	9	16	18	1	18	12	4	5	0	9	6	19	12	14	17	11	16	19	1	14	16	3	4	7	18	11	9	4	13	3	10	10	19	16	9	11	7	19	11	18	14	9	16	16	15	16	18	13	16	1	5	0	11	6	8	4	19	6	14	19	0	3	9	0	16	7	11	8	6	18	10	4	11	10	17	18	4	12	18	13	11	6	4	2	1	6	2	8	11	14	13	6	0	16	12	12	18	8	2	0	12	15	3	10	4	7	16	1	13	9	1	11	7	14	0	18	10	16	16	17	15	6	18	7	4	11	2	10	15	12	9	11	5	1	1	8	5	1	14	9	7	7	4	3	17	0	9	14	13	2	12	10	15	7	5	5	17	15	4	6	9	18	4	13	17	18	13	6	6	15	10	15	13	3	2	17	1	8	5	5	15	16	5	15	11	17	15	12	8	17	16	5	0	15	0	6	12	2	14	8	14	10	16	5	1	9	19	9	11	4	2	7	12	9	12	0	6	15	0	15	3	8	16	1	18	15	4	3	1	6	16	18	11	1	16	12	14	12	12	0	7	17	11	16	16	14	11	1	13	10	14	0	11	17	4	15	18	13	17	6	18	14	3	12	3	13	3	9	19	5	12	8	12	14	9	15	19	19	17	2	16	1	7	18	7	8	7	4	19	5	17	5	17	9	4	6	7	10	12	10	9	7	16	11	7	5	3	2	0	3	15	7	15	5	6	9	17	0	1	2	6	8	14	10	11	8	14	12	3	11	19	13	16	7	18	7	16	18	17	17	13	2	15	13	18	9	0	13	15	6	10	7	19	18	16	7	7	7	10	14	18	8	13	12	19	1	12	18	19	14	3	14	8	10	16	10	17	6	19	6	10	13	19	17	10	18	9	10	15	8	14	13	14	11	1	1	16	16	2	14	4	13	10	6	18	4	10	15	7	3	5	13	14	2	14	14	6	1	11	5	1	6	16	3	9	9	3	7	1	17	2	13	18	18	17	17	14	7	10	17	9	5	2	8	7	16	6	1	17	7	5	3	2	3	4	6	12	9	11	6	15	19	10	6	10	1	17	11	10	16	11	10	15	0	13	0	8	8	8	9	9	11	4	0	14	8	16	16	15	0	6	17	14	3	1	12	9	4	16	13	8	2	9	16	5	3	6	2	18	18	14	4	15	9	7	12	9	4	14	11	6	17	12	10	18	16	8	1	4	13	12	9	14	11	5	18	6	15	9	0	17	13	15	5	11	14	2	7	7	0	2	9	8	6	11	12	14	7	18	0	6	12	17	9	10	19	2	15	12	3	19	4	9	6	12	8	8	2	1	5	19	3	6	8	2	19	9	19	0	7	3	13	6	2	13	3	8	3	16	17	5	16	19	0	2	12	8	5	16	0	1	6	18	2	16	3	17	14	5	3	18	17	3	4	19	6	10	5	6	15	16	15	14	5	9	2	12	8	19	4	5	17	1	14	8	4	7	14	18	8	7	17	17	5	19	5	10	17	15	14	14	2	4	1	3	15	10	13	18	9	9	13	16	4	10	13	17	14	12	13	4	7	8	3	5	6	14	5	7	3	1	9	14	5	3	19	12	2	16	12	13	4	15	4	1	10	2	7	9	16	2	0	10	7	15	14	13	13	13	10	14	3	15	16	4	15	2	5	16	1	18	1	1	5	16	14	19	19	15	5	7	5	13	11	15	4	17	19	3	17	18	9	10	14	13	10	13	13	7	19	16	17	1	3	14	3	1	9	4	10	9	17	17	13	5	2	16	9	4	16	13	7	19	19	9	15	8	15	16	11	17	17	4	13	3	2	16	10	8	3	6	15	15	1	9	2	11	1	5	6	10	14	16	14	4	14	13	3	2	19	11	16	12	11	16	10	15	2	2	11	3	10	10	8	9	11	8	14	2	4	14	8	15	14	4	3	7	3	11	2	2	18	12	16	17	1	16	11	18	19	13	2	2	7	4	14	7	1	17	5	19	16	19	15	5	19	16	5	2	11	19	15	17	12	8	8	15	4	16	5	2	5	6	18	3	7	16	8	1	13	2	0	8	3	11	6	6	4	18	14	9	17	1	18	1	1	3	0	19	2	11	11	2	16	14	0	12	17	6	4	16	17	17	14	19	2	7	10	13	3	0	15	6	16	16	12	17	2	9	3	7	5	6	10	15	17	4	12	0	0	9	18	8	8	19	16	0	18	4	18	3	15	3	14	3	2	9	9	13	1	9	18	5	7	5	10	11	10	19	17	0	10	14	19	3	10	0	18	5	9	3	3	7	0	3	15	12	6	8	0	2	11	5	13	13	2	4	2	1	0	18	11	7	14	5	10	19	3	0	11	12	9	11	12	9	6	12	9	3	0	13	14	3	5	3	11	17	0	18	19	13	4	2	19	17	16	6	9	3	19	11	16	17	1	3	14	18	17	13	9	10	12	0	11	16	5	12	4	15	3	5	0	4	16	11	17	19	8	8	5	12	2	0	16	6	4	6	9	12	5	12	15	16	6	4	18	18	9	12	13	10	18	19	2	13	2	1	12	7	14	13	13	16	8	4	16	13	4	17	12	14	18	11	18	2	2	19	19	4	19	2	18	11	9	17	16	16	17	19	13	16	2	11	2	18	17	3	8	5	12	12	16	17	0	15	14	18	8	3	15	14	17	0	6	9	3	7	15	10	16	11	15	3	12	11	15	7	17	1	19	11	8	7	12	3	19	12	4	6	8	9	18	9	14	8	6	12	2	5	3	13	5	15	11	10	8	5	18	17	0	6	1	6	16	1	9	19	19	1	12	6	14	5	3	8	10	15	5	1	5	18	3	8	7	8	9	12	19	13	3	15	7	17	11	6	8	12	10	1	9	12	9	5	19	6	3	15	17	13	8	2	16	15	12	0	2	2	8	9	19	18	19	1	0	11	1	19	0	14	0	14	11	19	4	15	1	2	1	14	11	10	11	13	8	4	1	7	6	0	4	2	9	13	18	16	9	17	14	18	0	0	19	9	11	11	17	8	5	15	6	6	8	1	5	6	15	13	3	8	19	4	14	14	14	19	19	7	16	4	19	18	16	6	14	6	15	0	7	9	4	6	9	10	16	3	6	12	6	10	1	0	17	12	2	1	0	17	15	18	15	11	7	4	1	11	9	2	1	18	6	13	4	3	11	3	15	13	15	19	9	15	12	18	0	5	15	4	5	2	1	6	0	9	15	10	13	5	9	4	16	16	19	16	3	1	0	12	5	8	4	15	5	7	19	10	4	11	14	14	12	17	10	10	9	13	7	14	9	18	10	12	15	15	14	11	12	14	3	5	10	15	12	1	16	7	15	16	6	2	3	7	0	5	5	6	1	8	14	16	2	7	16	11	8	3	10	0	14	4	5	6	11	5	0	16	12	3	16	5	4	5	1	12	7	19	15	6	4	14	4	2	18	16	5	3	18	16	8	14	11	12	5	0	6	9	3	0	3	15	13	4	19	14	12	8	16	15	0	11	2	19	15	6	19	13	0	3	13	14	3	10	18	10	4	6	12	12	2	2	11	6	3	1	0	7	13	7	15	17	3	17	3	6	8	0	0	9	3	8	9	5	4	10	15	6	9	16	18	10	1	9	7	6	9	9	1	17	4	17	0	17	17	18	7	17	18	2	4	17	10	4	14	8	14	9	18	7	1	3	14	3	7	1	18	5	8	7	8	15	12	19	3	14	13	0	6	10	18	10	5	6	15	10	8	12	2	8	3	19	12	14	2	19	13	2	18	4	19	11	15	3	6	4	4	9	8	10	12	2	19	11	18	18	7	15	15	5	8	14	2	16	13	17	5	17	14	9	18	19	19	6	0	3	17	5	7	2	13	8	1	1	11	6	15	5	0	9	7	11	15	3	7	15	5	9	18	10	3	14	14	18	16	3	2	1	6	12	8	17	17	3	5	3	14	18	8	1	6	14	1	5	8	11	19	3	7	1	7	6	11	3	18	4	9	10	13	15	5	12	12	2	11	14	5	7	10	11	13	16	1	14	19	13	6	19	4	2	15	13	3	5	7	6	2	2	19	7	13	9	5	14	5	0	0	10	7	10	0	17	14	15	16	3	3	9	18	6	15	6	7	5	2	19	6	18	2	12	5	19	10	17	18	8	0	1	4	13	13	12	18	17	11	10	7	3	11	2	15	8	5	5	1	14	8	0	1	3	10	10	0	9	4	6	10	5	6	11	14	17	5	1	16	14	9	17	15	14	5	8	6	14	8	13	1	11	13	7	4	10	7	0	7	18	15	3	14	17	5	7	19	13	9	9	2	16	10	16	0	2	15	11	7	15	10	10	12	9	1	5	10	2	7	14	15	17	3	9	17	1	11	8	10	18	16	12	15	4	15	14	1	13	19	10	13	11	17	2	18	11	8	14	8	0	15	7	3	6	4	16	0	0	11	4	4	11	13	9	3	13	9	5	11	3	12	10	12	3	19	19	18	9	3	6	9	2	0	4	0	17	14	19	18	6	0	9	16	0	2	13	15	4	6	15	13	6	9	4	6	14	7	19	9	3	12	4	10	10	16	9	14	7	14	12	1	3	0	5	7	14	10	12	7	19	16	4	16	8	4	5	12	12	9	12	6	2	16	14	14	12	17	10	12	11	6	5	17	4	18	10	17	8	9	10	2	8	1	14	19	0	12	4	9	17	5	15	2	1	12	6	14	18	2	18	19	1	4	19	11	0	10	12	13	10	11	14	17	6	15	8	3	11	9	8	11	10	15	11	16	4	18	13	18	2	6	3	18	18	18	14	19	12	4	5	8	4	4	18	15	10	9	1	4	8	15	8	18	10	19	6	13	4	4	2	1	19	11	11	6	1	2	14	8	3	8	15	5	7	0	4	17	11	14	10	17	15	10	9	19	10	13	14	5	0	13	15	0	10	16	7	6	6	14	19	7	13	18	16	13	6	19	1	18	17	16	3	3	8	18	15	14	13	9	12	3	16	16	11	6	14	17	7	7	18	0	0	11	6	2	14	3	2	9	5	3	1	2	16	1	4	8	14	2	3	15	4	3	0	11	9	12	7	14	11	13	16	3	2	13	19	0	14	16	9	3	15	8	14	16	16	16	2	18	6	7	16	7	18	10	5	13	18	1	13	7	14	11	4	7	17	9	7	17	15	12	13	11	9	8	12	2	1	15	10	1	2	7	1	17	10	8	11	10	10	2	17	8	13	1	6	19	9	2	19	7	19	14	14	6	13	12	7	16	9	7	1	2	3	7	13	6	15	9	4	2	16	6	18	13	0	5	11	13	10	4	13	11	0	2	14	9	16	15	16	14	17	12	6	3	9	2	4	16	2	11	6	1	18	14	5	6	11	4	18	4	3	5	15	14	7	13	11	10	10	6	18	17	17	13	5	2	4	2	3	9	7	9	4	7	14	10	13	3	6	1	0	5	13	18	13	2	4	19	9	3	11	8	17	3	4	18	15	5	16	3	17	15	10	9	7	0	1	13	6	17	1	6	8	2	16	10	13	5	15	15	10	15	10	6	6	5	0	0	15	2	8	14	6	8	7	19	9	0	15	0	4	14	7	15	14	8	16	10	9	5	11	2	8	9	5	3	4	16	11	7	1	4	6	19	11	7	5	1	0	19	16	14	0	8	5	1	6	19	17	5	16	0	18	8	11	19	10	12	4	2	2	18	10	15	8	1	15	3	18	16	4	2	0	12	9	9	3	0	17	15	15	5	3	9	18	16	5	8	10	13	16	9	9	18	17	15	19	5	14	2	0	15	8	3	14	5	7	7	5	11	2	5	5	18	1	12	16	2	16	4	9	17	18	15	4	7	2	3	2	14	9	11	19	7	16	11	7	6	15	4	6	15	5	19	12	18	10	1	16	3	3	15	6	13	9	10	6	4	5	5	11	9	2	18	1	11	12	15	19	19	16	2	0	19	7	3	16	10	11	0	1	19	11	9	7	0	2	5	0	9	11	12	12	2	8	11	1	17	13	5	10	19	6	16	9	8	15	19	9	4	10	1	1	5	2	18	18	15	12	4	3	11	19	1	14	0	16	6	10	5	9	3	3	10	13	2	2	13	17	5	10	16	10	16	6	18	7	6	4	6	15	10	1	10	18	14	5	15	8	15	9	0	7	0	16	10	2	7	3	7	14	8	9	2	16	17	13	13	19	5	17	4	4	9	10	17	10	16	1	12	15	18	10	2	4	4	3	16	12	1	4	2	13	16	8	16	6	8	10	7	16	12	8	1	17	12	8	1	14	11	14	11	13	8	13	6	18	10	9	15	4	7	16	5	10	8	0	5	7	9	12	4	1	5	11	14	17	3	5	6	7	16	11	15	15	11	17	5	16	8	18	13	17	13	4	0	13	2	9	19	7	5	5	11	6	1	12	3	9	6	6	15	19	9	9	13	8	0	8	2	19	5	18	14	15	8	8	9	19	17	6	11	11	14	7	16	12	13	0	11	15	2	11	12	5	0	12	4	5	16	16	14	2	5	4	3	2	2	16	5	11	9	9	4	6	10	7	17	18	19	11	19	10	5	16	18	13	7	8	5	4	5	14	9	1	8	14	12	7	8	16	11	18	6	16	14	4	3	17	3	16	17	9	18	2	0	5	13	4	8	13	8	3	1	14	10	4	2	14	4	1	18	8	13	11	8	8	7	10	19	1	5	3	2	17	1	12	16	9	8	16	5	14	16	2	2	8	17	4	0	9	0	8	9	11	15	14	12	5	5	11	12	15	8	6	17	13	8	11	7	18	12	0	12	17	14	7	18	3	19	8	0	18	11	17	7	2	14	15	12	15	8	19	0	14	3	17	4	19	14	3	18	2	4	1	0	4	17	0	0	8	12	1	11	19	2	15	2	17	6	11	1	9	13	15	2	11	12	12	10	12	15	13	18	17	9	13	5	8	10	0	16	11	19	5	6	2	8	14	0	0	10	9	12	9	16	6	6	14	3	4	19	8	17	16	2	1	14	7	19	8	12	12	13	4	1	2	3	12	10	15	15	18	11	1	3	17	0	8	8	3	2	8	11	2	5	8	1	17	16	12	2	6	8	15	17	3	14	0	19	9	0	9	2	5	12	8	12	18	9	5	8	17	6	13	14	0	2	18	17	12	7	7	2	0	17	5	11	11	8	17	19	13	9	0	0	7	10	17	5	11	5	18	2	6	13	6	12	0	9	17	1	3	10	12	11	16	12	2	7	14	18	7	10	4	5	13	11	13	4	4	0	14	13	10	6	0	3	3	13	19	1	1	9	6	10	15	5	8	9	15	2	18	10	2	19	17	9	3	10	7	19	18	4	9	12	14	0	0	16	8	17	1	4	15	9	9	6	13	16	0	15	19	18	0	1	8	16	6	5	10	17	9	7	6	12	9	12	17	12	18	10	14	5	9	2	17	13	7	19	9	1	10	19	11	0	4	14	11	4	1	5	6	12	14	15	8	10	10	