# vtk DataFile Version 2.0
Try VTK 20231019
ASCII
DATASET POLYDATA
POINTS 16 double
1.0 1.0 1.0
2.0 1.0 1.0
2.0 2.0 1.0
1.0 2.0 1.0
1.0 1.0 2.0
2.0 1.0 2.0
2.0 2.0 2.0
1.0 2.0 2.0  

1.0 3.0 1.0
2.0 3.0 1.0
2.0 4.0 1.0
1.0 4.0 1.0
1.0 3.0 2.0
2.0 3.0 2.0
2.0 4.0 2.0
1.0 4.0 2.0
POLYGONS 12 60
4 0 1 2 3
4 4 5 6 7
4 0 3 7 4
4 2 3 7 6
4 1 2 6 5
4 0 1 5 4

4 8 9 10 11
4 12 13 14 15
4 8 11 15 12
4 10 11 15 14
4 9 10 14 13
4 8 9 13 12
CELL_DATA 12 
SCALARS Damage double 1
LOOKUP_TABLE default
3
1
1
3
1
1
2
2
3
2
2
2
