# vtk DataFile Version 2.0
E:/Desktop/EVAC2023/output/Building.vtk
ASCII 
DATASET POLYDATA
POINTS 88 double
10 10 0
210 10 0
210 210 0
10 210 0
10 10 32
210 10 32
210 210 32
10 210 32
10 10 64
210 10 64
210 210 64
10 210 64
10 10 96
210 10 96
210 210 96
10 210 96
10 10 128
210 10 128
210 210 128
10 210 128
10 10 160
210 10 160
210 210 160
10 210 160
10 10 192
210 10 192
210 210 192
10 210 192
10 10 224
210 10 224
210 210 224
10 210 224
10 10 256
210 10 256
210 210 256
10 210 256
10 10 288
210 10 288
210 210 288
10 210 288
10 10 320
210 10 320
210 210 320
10 210 320
10 10 352
210 10 352
210 210 352
10 210 352
10 10 384
210 10 384
210 210 384
10 210 384
10 10 416
210 10 416
210 210 416
10 210 416
10 10 448
210 10 448
210 210 448
10 210 448
10 10 480
210 10 480
210 210 480
10 210 480
10 10 512
210 10 512
210 210 512
10 210 512
10 10 544
210 10 544
210 210 544
10 210 544
10 10 576
210 10 576
210 210 576
10 210 576
10 10 608
210 10 608
210 210 608
10 210 608
10 10 640
210 10 640
210 210 640
10 210 640
10 10 672
210 10 672
210 210 672
10 210 672
POLYGONS 22 110
4 0 1 2 3 
4 4 5 6 7 
4 8 9 10 11 
4 12 13 14 15 
4 16 17 18 19 
4 20 21 22 23 
4 24 25 26 27 
4 28 29 30 31 
4 32 33 34 35 
4 36 37 38 39 
4 40 41 42 43 
4 44 45 46 47 
4 48 49 50 51 
4 52 53 54 55 
4 56 57 58 59 
4 60 61 62 63 
4 64 65 66 67 
4 68 69 70 71 
4 72 73 74 75 
4 76 77 78 79 
4 80 81 82 83 
4 84 85 86 87 
CELL_DATA 22
SCALARS Damage double 1
LOOKUP_TABLE default
1
1
1
1
1
1
1
1
1
1
1
1
1
1
1
1
1
1
1
1
1
1
