# vtk DataFile Version 2.0
E:/Desktop/EVAC2023/output/Crowd.vtk
ASCII 
DATASET POLYDATA
POINTS 240 double
40.75 66.75 704
40.75 67.25 704
41.25 67.25 704
41.25 66.75 704
40.75 66.75 706
40.75 67.25 706
41.25 67.25 706
41.25 66.75 706
33.75 -0.25 704
33.75 0.25 704
34.25 0.25 704
34.25 -0.25 704
33.75 -0.25 706
33.75 0.25 706
34.25 0.25 706
34.25 -0.25 706
68.75 23.75 704
68.75 24.25 704
69.25 24.25 704
69.25 23.75 704
68.75 23.75 706
68.75 24.25 706
69.25 24.25 706
69.25 23.75 706
77.75 57.75 704
77.75 58.25 704
78.25 58.25 704
78.25 57.75 704
77.75 57.75 706
77.75 58.25 706
78.25 58.25 706
78.25 57.75 706
61.75 63.75 704
61.75 64.25 704
62.25 64.25 704
62.25 63.75 704
61.75 63.75 706
61.75 64.25 706
62.25 64.25 706
62.25 63.75 706
4.75 44.75 704
4.75 45.25 704
5.25 45.25 704
5.25 44.75 704
4.75 44.75 706
4.75 45.25 706
5.25 45.25 706
5.25 44.75 706
80.75 26.75 704
80.75 27.25 704
81.25 27.25 704
81.25 26.75 704
80.75 26.75 706
80.75 27.25 706
81.25 27.25 706
81.25 26.75 706
60.75 90.75 704
60.75 91.25 704
61.25 91.25 704
61.25 90.75 704
60.75 90.75 706
60.75 91.25 706
61.25 91.25 706
61.25 90.75 706
94.75 41.75 704
94.75 42.25 704
95.25 42.25 704
95.25 41.75 704
94.75 41.75 706
94.75 42.25 706
95.25 42.25 706
95.25 41.75 706
26.75 35.75 704
26.75 36.25 704
27.25 36.25 704
27.25 35.75 704
26.75 35.75 706
26.75 36.25 706
27.25 36.25 706
27.25 35.75 706
90.75 3.75 704
90.75 4.25 704
91.25 4.25 704
91.25 3.75 704
90.75 3.75 706
90.75 4.25 706
91.25 4.25 706
91.25 3.75 706
1.75 52.75 704
1.75 53.25 704
2.25 53.25 704
2.25 52.75 704
1.75 52.75 706
1.75 53.25 706
2.25 53.25 706
2.25 52.75 706
91.75 81.75 704
91.75 82.25 704
92.25 82.25 704
92.25 81.75 704
91.75 81.75 706
91.75 82.25 706
92.25 82.25 706
92.25 81.75 706
20.75 15.75 704
20.75 16.25 704
21.25 16.25 704
21.25 15.75 704
20.75 15.75 706
20.75 16.25 706
21.25 16.25 706
21.25 15.75 706
17.75 94.75 704
17.75 95.25 704
18.25 95.25 704
18.25 94.75 704
17.75 94.75 706
17.75 95.25 706
18.25 95.25 706
18.25 94.75 706
46.75 25.75 704
46.75 26.25 704
47.25 26.25 704
47.25 25.75 704
46.75 25.75 706
46.75 26.25 706
47.25 26.25 706
47.25 25.75 706
70.75 37.75 704
70.75 38.25 704
71.25 38.25 704
71.25 37.75 704
70.75 37.75 706
70.75 38.25 706
71.25 38.25 706
71.25 37.75 706
68.75 11.75 704
68.75 12.25 704
69.25 12.25 704
69.25 11.75 704
68.75 11.75 706
68.75 12.25 706
69.25 12.25 706
69.25 11.75 706
66.75 98.75 704
66.75 99.25 704
67.25 99.25 704
67.25 98.75 704
66.75 98.75 706
66.75 99.25 706
67.25 99.25 706
67.25 98.75 706
34.75 93.75 704
34.75 94.25 704
35.25 94.25 704
35.25 93.75 704
34.75 93.75 706
34.75 94.25 706
35.25 94.25 706
35.25 93.75 706
2.75 10.75 704
2.75 11.25 704
3.25 11.25 704
3.25 10.75 704
2.75 10.75 706
2.75 11.25 706
3.25 11.25 706
3.25 10.75 706
21.75 32.75 704
21.75 33.25 704
22.25 33.25 704
22.25 32.75 704
21.75 32.75 706
21.75 33.25 706
22.25 33.25 706
22.25 32.75 706
72.75 63.75 704
72.75 64.25 704
73.25 64.25 704
73.25 63.75 704
72.75 63.75 706
72.75 64.25 706
73.25 64.25 706
73.25 63.75 706
40.75 10.75 704
40.75 11.25 704
41.25 11.25 704
41.25 10.75 704
40.75 10.75 706
40.75 11.25 706
41.25 11.25 706
41.25 10.75 706
52.75 67.75 704
52.75 68.25 704
53.25 68.25 704
53.25 67.75 704
52.75 67.75 706
52.75 68.25 706
53.25 68.25 706
53.25 67.75 706
46.75 43.75 704
46.75 44.25 704
47.25 44.25 704
47.25 43.75 704
46.75 43.75 706
46.75 44.25 706
47.25 44.25 706
47.25 43.75 706
61.75 56.75 704
61.75 57.25 704
62.25 57.25 704
62.25 56.75 704
61.75 56.75 706
61.75 57.25 706
62.25 57.25 706
62.25 56.75 706
36.75 58.75 704
36.75 59.25 704
37.25 59.25 704
37.25 58.75 704
36.75 58.75 706
36.75 59.25 706
37.25 59.25 706
37.25 58.75 706
22.75 40.75 704
22.75 41.25 704
23.25 41.25 704
23.25 40.75 704
22.75 40.75 706
22.75 41.25 706
23.25 41.25 706
23.25 40.75 706
28.75 77.75 704
28.75 78.25 704
29.25 78.25 704
29.25 77.75 704
28.75 77.75 706
28.75 78.25 706
29.25 78.25 706
29.25 77.75 706
POLYGONS 180 900
4 0 1 2 3
4 4 5 6 7
4 0 4 7 3
4 3 7 6 2
4 1 5 4 0
4 2 6 5 1
4 8 9 10 11
4 12 13 14 15
4 8 12 15 11
4 11 15 14 10
4 9 13 12 8
4 10 14 13 9
4 16 17 18 19
4 20 21 22 23
4 16 20 23 19
4 19 23 22 18
4 17 21 20 16
4 18 22 21 17
4 24 25 26 27
4 28 29 30 31
4 24 28 31 27
4 27 31 30 26
4 25 29 28 24
4 26 30 29 25
4 32 33 34 35
4 36 37 38 39
4 32 36 39 35
4 35 39 38 34
4 33 37 36 32
4 34 38 37 33
4 40 41 42 43
4 44 45 46 47
4 40 44 47 43
4 43 47 46 42
4 41 45 44 40
4 42 46 45 41
4 48 49 50 51
4 52 53 54 55
4 48 52 55 51
4 51 55 54 50
4 49 53 52 48
4 50 54 53 49
4 56 57 58 59
4 60 61 62 63
4 56 60 63 59
4 59 63 62 58
4 57 61 60 56
4 58 62 61 57
4 64 65 66 67
4 68 69 70 71
4 64 68 71 67
4 67 71 70 66
4 65 69 68 64
4 66 70 69 65
4 72 73 74 75
4 76 77 78 79
4 72 76 79 75
4 75 79 78 74
4 73 77 76 72
4 74 78 77 73
4 80 81 82 83
4 84 85 86 87
4 80 84 87 83
4 83 87 86 82
4 81 85 84 80
4 82 86 85 81
4 88 89 90 91
4 92 93 94 95
4 88 92 95 91
4 91 95 94 90
4 89 93 92 88
4 90 94 93 89
4 96 97 98 99
4 100 101 102 103
4 96 100 103 99
4 99 103 102 98
4 97 101 100 96
4 98 102 101 97
4 104 105 106 107
4 108 109 110 111
4 104 108 111 107
4 107 111 110 106
4 105 109 108 104
4 106 110 109 105
4 112 113 114 115
4 116 117 118 119
4 112 116 119 115
4 115 119 118 114
4 113 117 116 112
4 114 118 117 113
4 120 121 122 123
4 124 125 126 127
4 120 124 127 123
4 123 127 126 122
4 121 125 124 120
4 122 126 125 121
4 128 129 130 131
4 132 133 134 135
4 128 132 135 131
4 131 135 134 130
4 129 133 132 128
4 130 134 133 129
4 136 137 138 139
4 140 141 142 143
4 136 140 143 139
4 139 143 142 138
4 137 141 140 136
4 138 142 141 137
4 144 145 146 147
4 148 149 150 151
4 144 148 151 147
4 147 151 150 146
4 145 149 148 144
4 146 150 149 145
4 152 153 154 155
4 156 157 158 159
4 152 156 159 155
4 155 159 158 154
4 153 157 156 152
4 154 158 157 153
4 160 161 162 163
4 164 165 166 167
4 160 164 167 163
4 163 167 166 162
4 161 165 164 160
4 162 166 165 161
4 168 169 170 171
4 172 173 174 175
4 168 172 175 171
4 171 175 174 170
4 169 173 172 168
4 170 174 173 169
4 176 177 178 179
4 180 181 182 183
4 176 180 183 179
4 179 183 182 178
4 177 181 180 176
4 178 182 181 177
4 184 185 186 187
4 188 189 190 191
4 184 188 191 187
4 187 191 190 186
4 185 189 188 184
4 186 190 189 185
4 192 193 194 195
4 196 197 198 199
4 192 196 199 195
4 195 199 198 194
4 193 197 196 192
4 194 198 197 193
4 200 201 202 203
4 204 205 206 207
4 200 204 207 203
4 203 207 206 202
4 201 205 204 200
4 202 206 205 201
4 208 209 210 211
4 212 213 214 215
4 208 212 215 211
4 211 215 214 210
4 209 213 212 208
4 210 214 213 209
4 216 217 218 219
4 220 221 222 223
4 216 220 223 219
4 219 223 222 218
4 217 221 220 216
4 218 222 221 217
4 224 225 226 227
4 228 229 230 231
4 224 228 231 227
4 227 231 230 226
4 225 229 228 224
4 226 230 229 225
4 232 233 234 235
4 236 237 238 239
4 232 236 239 235
4 235 239 238 234
4 233 237 236 232
4 234 238 237 233
CELL_DATA 180
SCALARS Damage double 1
LOOKUP_TABLE default
6
6
6
6
6
6
5
5
5
5
5
5
0
0
0
0
0
0
2
2
2
2
2
2
8
8
8
8
8
8
6
6
6
6
6
6
0
0
0
0
0
0
2
2
2
2
2
2
4
4
4
4
4
4
8
8
8
8
8
8
6
6
6
6
6
6
5
5
5
5
5
5
0
0
0
0
0
0
9
9
9
9
9
9
0
0
0
0
0
0
0
0
0
0
0
0
6
6
6
6
6
6
1
1
1
1
1
1
3
3
3
3
3
3
8
8
8
8
8
8
9
9
9
9
9
9
3
3
3
3
3
3
4
4
4
4
4
4
4
4
4
4
4
4
6
6
6
6
6
6
0
0
0
0
0
0
6
6
6
6
6
6
6
6
6
6
6
6
1
1
1
1
1
1
8
8
8
8
8
8
