# vtk DataFile Version 2.0
S Earthquake Disaster Simulator V0.95
ASCII
DATASET POLYDATA
POINTS 15 double
6782.752047 97488.212387 0.0
6783.077449 97472.903403 0.0
6774.445073 97472.565185 0.0
6774.040691 97480.679957 0.0
6770.293927 97481.025663 0.0
6770.730731 97488.204262 0.0
6782.752047 97488.212387 3.0
6783.077449 97472.903403 3.0
6774.445073 97472.565185 3.0
6774.040691 97480.679957 3.0
6770.293927 97481.025663 3.0
6770.730731 97488.204262 3.0
6782.752047 97488.212387 6.0
6783.077449 97472.903403 6.0
6774.445073 97472.565185 6.0
POLYGONS 10 42 
4 0 1 7 6
4 1 2 8 7
4 2 3 9 8
4 3 4 10 9
4 4 5 11 10
4 5 0 6 11
6 6 7 8 9 10 11
4 6 7 13 12
4 7 8 14 13
4 8 9 15 14
CELL_DATA 10
SCALARS Damage double 1
LOOKUP_TABLE default
1
1
1
1
1
1
1
1
1
1

