# vtk DataFile Version 2.0
S Earthquake Disaster Simulator V0.95
ASCII
DATASET POLYDATA
POINTS 13 double
15159.6 6740.98 0
15165.4 6735.75 0
15161.5 6729.3 0
15155.7 6734.53 0
15159.6 6740.98 5
15165.4 6735.75 5
15161.5 6729.3 5
15155.7 6734.53 5
15065.8 6484.45 0
15071.3 6486.23 0
15074 6476 0
15068.5 6474.22 0
15065.8 6484.45 5

POLYGONS 6 24
4 0 1 5 4
4 1 2 6 5
4 2 3 7 6
4 3 0 4 7
4 4 5 6 7
4 8 9 13 12

CELL_DATA 6
SCALARS Damage double 1
LOOKUP_TABLE default
0
0
0
0
0
0
